LAMMPS data file for neat liquid water

432 atoms
2 atom types

0.0 16.1 xlo xhi
0.0 16.1 ylo yhi
0.0 16.1 zlo zhi

Masses

1 15.999 # O
2 1.00784 # H

Atoms # atomic

368 2 1.607 1.569 3.717 0 0 0
129 2 1.243 4.324 1.854 0 0 1
52 1 0.792 3.293 3.144 1 0 1
54 2 16.192 2.871 2.503 0 0 1
383 2 3.692 0.457 15.901 0 1 0
42 2 5.640 0.804 4.214 0 1 0
301 1 4.286 3.060 4.827 0 0 0
303 2 3.561 2.546 5.227 0 0 0
41 2 5.038 1.791 3.214 0 1 0
360 2 4.844 2.100 0.632 0 0 1
358 1 5.192 1.216 16.270 0 0 0
40 1 5.459 0.878 3.254 0 1 0
362 2 9.579 1.873 1.214 0 0 0
363 2 8.220 1.131 1.423 0 0 0
361 1 8.636 1.997 1.428 0 0 0
106 1 11.073 1.809 0.376 0 0 0
155 2 8.757 2.069 3.108 0 0 0
154 1 9.024 2.255 4.033 0 0 0
156 2 9.762 2.837 4.153 0 0 0
74 2 9.667 0.521 4.184 0 0 0
381 2 7.414 3.271 1.320 0 0 1
297 2 6.305 3.195 5.142 0 0 0
295 1 7.172 3.555 5.378 0 0 0
296 2 7.860 2.965 4.994 0 0 0
379 1 6.727 4.020 1.307 0 0 1
359 2 5.872 0.803 0.804 0 0 1
95 2 12.453 2.683 0.606 0 0 1
265 1 14.082 3.519 3.913 0 0 0
266 2 13.523 3.150 4.608 0 0 0
53 2 16.204 3.611 3.777 0 0 1
267 2 13.706 3.127 3.053 0 0 0
94 1 13.234 3.216 0.903 0 0 1
96 2 13.382 3.911 0.281 0 0 1
385 1 10.846 3.719 5.428 0 0 0
387 2 11.066 4.180 4.629 0 0 0
386 2 11.534 3.058 5.613 0 0 0
130 1 12.552 1.802 5.646 0 0 0
131 2 12.463 0.929 5.221 0 0 0
108 2 11.177 0.873 16.195 0 0 -1
3 2 1.481 7.575 3.323 0 0 0
50 2 2.223 8.456 1.256 0 0 0
49 1 2.035 8.597 2.163 0 0 0
85 1 3.721 5.378 3.451 0 0 0
86 2 2.742 5.694 3.493 0 0 0
2 2 0.418 6.578 3.681 0 0 0
1 1 1.329 6.770 3.904 0 0 0
302 2 3.921 3.879 4.387 0 0 0
339 2 4.303 7.106 2.899 0 0 0
87 2 4.042 5.751 4.266 0 0 0
63 2 1.119 7.426 5.562 1 0 0
127 1 1.542 4.773 1.000 0 0 1
38 2 3.249 3.828 1.315 0 0 1
37 1 4.071 3.325 1.162 0 0 1
128 2 0.920 5.511 1.011 0 0 1
39 2 4.796 3.962 1.412 0 0 1
380 2 7.198 4.782 1.696 0 0 1
244 1 9.261 5.074 1.938 0 0 0
245 2 9.390 5.328 1.006 0 0 0
246 2 8.993 5.934 2.329 0 0 0
105 2 8.324 6.870 3.782 0 0 0
177 2 7.897 5.320 5.272 0 0 0
429 2 11.686 6.232 3.528 0 0 0
103 1 8.544 7.414 3.013 0 0 0
428 2 10.802 5.185 2.822 0 0 0
427 1 11.559 5.282 3.491 0 0 0
256 1 14.651 6.008 3.722 0 0 0
257 2 14.136 5.136 3.967 0 0 0
170 2 14.869 6.087 1.920 -1 0 1
258 2 14.043 6.796 3.688 0 0 0
169 1 15.338 6.333 1.060 -1 0 1
171 2 15.112 7.250 0.841 -1 0 1
312 2 12.543 8.204 1.209 0 0 0
310 1 12.288 8.392 0.269 0 0 0
84 2 15.219 5.425 5.624 0 1 0
311 2 11.537 8.888 0.445 0 0 0
51 2 2.907 8.608 2.527 0 0 0
119 2 0.863 9.836 1.935 0 0 0
432 2 0.660 9.641 5.333 0 0 0
118 1 16.256 10.512 1.684 -1 0 0
430 1 0.284 10.486 4.864 0 0 0
30 2 2.911 13.011 0.933 0 0 1
28 1 3.840 12.969 1.310 0 0 1
29 2 3.892 13.718 2.009 0 0 1
337 1 4.563 8.035 3.090 0 0 0
338 2 5.243 8.283 2.448 0 0 0
206 2 5.833 8.869 4.783 0 0 0
104 2 7.770 7.913 2.784 0 0 0
203 2 6.558 10.121 1.467 0 0 1
202 1 6.594 9.150 1.629 0 0 1
371 2 9.539 9.186 2.375 0 0 0
204 2 7.079 8.827 0.851 0 0 1
419 2 6.791 10.906 4.629 0 0 0
150 2 9.366 10.688 0.323 0 0 0
420 2 6.593 11.788 3.324 0 0 0
391 1 6.237 11.838 1.462 0 0 0
418 1 6.981 11.810 4.246 0 0 0
393 2 6.699 12.490 0.905 0 0 0
392 2 5.293 12.166 1.361 0 0 0
271 1 9.738 11.680 5.333 0 0 0
272 2 8.848 11.732 5.008 0 0 0
205 1 6.549 9.484 5.102 0 0 0
148 1 9.159 10.858 15.435 0 0 -1
120 2 15.715 10.648 2.478 -1 0 0
225 2 10.755 11.467 3.945 0 0 0
357 2 15.332 9.507 0.532 -1 0 1
370 1 9.888 9.696 1.645 0 0 0
372 2 10.483 10.411 2.141 0 0 0
356 2 13.976 9.004 15.982 -1 0 0
110 2 12.973 11.596 3.477 0 0 0
121 1 13.156 8.351 3.408 0 0 0
122 2 13.491 9.232 3.203 0 0 0
111 2 14.307 11.486 4.350 0 0 0
109 1 13.937 11.373 3.471 0 0 0
123 2 12.720 8.385 4.369 0 0 0
355 1 14.926 8.906 15.924 -1 0 0
305 2 0.866 13.591 0.887 0 0 1
367 1 1.612 0.800 4.260 0 0 0
431 2 1.069 10.872 4.438 0 0 0
353 2 3.121 11.868 4.214 0 0 0
352 1 2.497 11.395 3.703 0 0 0
151 1 3.489 15.457 2.630 0 -1 0
152 2 3.266 15.615 1.730 0 -1 0
354 2 2.851 11.571 2.826 0 0 0
369 2 1.913 16.269 3.585 0 -1 0
382 1 2.851 16.080 15.781 0 0 0
153 2 4.174 16.125 2.870 0 -1 0
187 1 7.406 15.669 1.349 0 -1 0
188 2 7.515 15.269 2.218 0 -1 0
189 2 7.662 14.938 0.755 0 -1 0
136 1 11.110 14.169 2.170 0 -1 0
137 2 11.119 14.438 1.272 0 -1 0
138 2 10.491 14.813 2.593 0 -1 0
350 2 7.363 13.568 4.309 0 0 0
349 1 7.550 14.513 4.132 0 0 0
75 2 8.868 15.355 4.223 0 -1 0
73 1 9.778 15.709 4.152 0 -1 0
223 1 11.246 11.542 3.071 0 0 0
263 2 14.887 1.914 0.850 0 1 1
60 2 15.945 16.116 3.450 -1 0 0
59 2 15.179 15.252 2.354 -1 0 0
224 2 10.955 12.364 2.651 0 0 0
426 2 12.417 14.893 3.599 0 -1 0
285 2 14.655 13.017 2.113 -1 0 0
425 2 13.684 15.663 3.960 0 -1 0
58 1 15.135 16.080 2.863 -1 0 0
424 1 12.899 15.281 4.404 0 -1 0
284 2 14.696 14.035 0.801 -1 0 0
283 1 15.028 13.824 1.660 -1 0 0
407 2 3.005 2.455 7.508 0 0 0
406 1 2.293 2.423 6.862 0 0 0
114 2 5.371 15.758 6.508 0 -1 0
43 1 0.799 15.502 6.564 0 0 0
4 1 3.914 1.562 9.457 0 0 0
6 2 3.572 0.733 9.003 0 0 0
277 1 3.360 4.118 10.697 0 0 0
279 2 3.275 3.283 10.166 0 0 0
378 2 16.229 0.450 8.642 0 1 0
5 2 4.854 1.392 9.488 0 0 0
112 1 6.097 16.293 6.020 0 -1 0
113 2 6.899 16.184 6.572 0 -1 0
174 2 7.061 3.375 7.173 0 0 0
172 1 7.214 3.346 8.143 0 0 0
173 2 8.210 3.288 8.157 0 0 0
179 2 10.105 2.990 6.966 0 0 0
32 2 6.692 1.825 8.931 0 1 0
31 1 6.566 1.097 9.579 0 1 0
178 1 9.921 2.605 7.837 0 0 0
416 2 8.487 1.315 11.761 0 0 0
288 2 10.019 0.296 10.199 0 1 0
33 2 7.307 0.495 9.402 0 1 0
102 2 11.518 2.105 10.493 0 0 0
411 2 6.750 3.534 11.124 0 0 0
415 1 8.660 0.453 11.320 0 0 0
377 2 0.987 1.535 7.824 1 1 0
132 2 13.053 1.653 6.442 0 0 0
160 1 13.018 1.409 8.179 0 1 0
161 2 13.771 1.228 8.758 0 1 0
101 2 10.945 2.957 9.187 0 0 0
180 2 9.695 1.693 7.696 0 0 0
376 1 0.280 1.419 8.483 1 1 0
318 2 15.605 2.275 9.551 0 1 0
228 2 14.443 0.978 10.826 0 1 0
89 2 13.576 3.772 8.777 0 0 0
286 1 10.748 16.300 9.549 0 0 0
162 2 12.255 1.028 8.640 0 1 0
100 1 11.298 3.027 10.137 0 0 0
328 1 2.219 5.194 6.754 0 0 0
329 2 3.172 5.379 6.512 0 0 0
330 2 1.962 5.515 7.642 0 0 0
408 2 1.964 3.338 6.811 0 0 0
135 2 4.336 6.953 6.624 0 0 0
276 2 3.274 7.408 8.429 0 0 0
16 1 1.894 6.243 9.368 1 0 0
17 2 0.914 6.132 9.509 1 0 0
18 2 2.373 5.534 9.833 1 0 0
274 1 3.954 7.916 7.984 0 0 0
275 2 4.718 8.121 8.603 0 0 0
133 1 4.574 6.164 6.101 0 0 0
390 2 5.925 4.585 8.404 0 0 0
389 2 4.879 4.793 9.417 0 0 0
83 2 0.321 4.948 6.411 1 1 0
175 1 8.326 6.217 5.216 0 0 0
222 2 9.405 3.333 10.479 0 0 0
220 1 8.702 3.690 11.036 0 0 0
221 2 8.715 4.665 10.893 0 0 0
176 2 8.357 6.680 6.104 0 0 0
134 2 5.227 5.838 6.739 0 0 0
27 2 7.269 8.087 7.778 0 0 0
21 2 11.181 5.486 6.676 0 0 0
388 1 5.189 5.186 8.599 0 0 0
238 1 6.249 7.962 9.185 0 0 0
146 2 10.563 6.986 8.574 0 0 0
145 1 10.359 7.266 9.469 0 0 0
240 2 6.033 7.186 9.662 0 0 0
82 1 15.428 4.703 6.240 0 1 0
347 2 11.073 6.018 10.794 0 0 0
19 1 11.721 6.068 7.227 0 0 0
90 2 14.395 4.577 7.700 0 0 0
20 2 12.323 5.659 7.875 0 0 0
8 2 12.271 7.507 6.417 -1 0 0
88 1 13.785 4.673 8.465 0 0 0
346 1 11.669 5.616 11.433 0 0 0
184 1 15.371 6.379 10.347 0 0 0
185 2 14.749 5.765 9.937 0 0 0
243 2 14.953 8.255 10.239 0 0 0
348 2 12.192 5.007 10.969 0 0 0
61 1 1.187 8.286 6.078 1 0 0
56 2 2.865 9.564 6.178 0 0 0
55 1 3.134 10.283 6.724 0 0 0
219 2 4.180 11.368 5.980 0 0 0
217 1 4.467 12.246 5.579 0 0 0
218 2 5.429 12.079 5.357 0 0 0
57 2 3.698 9.755 7.280 0 0 0
183 2 2.244 11.442 7.797 1 0 0
181 1 1.768 11.934 8.477 1 0 0
182 2 1.416 11.238 9.066 1 0 0
364 1 0.502 10.631 10.646 1 0 0
345 2 11.312 9.300 7.231 0 0 0
147 2 11.030 7.955 9.732 0 0 0
239 2 6.260 8.667 9.873 0 0 0
25 1 7.948 8.169 7.054 0 0 0
207 2 6.981 9.100 5.830 0 0 0
26 2 8.680 8.732 7.336 0 0 0
343 1 10.750 10.025 7.527 0 0 0
344 2 10.442 10.524 6.734 0 0 0
394 1 11.020 11.512 9.690 0 0 0
396 2 10.851 10.970 8.896 0 0 0
22 1 7.250 9.829 10.825 0 0 0
23 2 6.448 10.261 11.223 0 0 0
24 2 7.759 10.636 10.562 0 0 0
7 1 12.609 8.206 5.893 -1 0 0
62 2 0.408 8.295 6.631 1 0 0
402 2 0.365 12.006 7.519 0 0 0
9 2 13.334 8.636 6.449 -1 0 0
322 1 14.439 9.530 7.187 0 0 0
324 2 14.620 10.518 7.130 0 0 0
400 1 15.559 12.000 7.006 -1 0 0
323 2 14.554 9.237 8.117 0 0 0
261 2 11.812 9.971 10.155 0 0 0
259 1 12.156 9.067 10.325 0 0 0
241 1 14.657 9.067 9.846 0 0 0
242 2 13.796 9.262 10.332 0 0 0
401 2 15.823 11.614 6.115 -1 0 0
365 2 15.778 10.049 10.340 0 0 0
44 2 0.939 15.992 5.730 0 0 0
47 2 3.254 12.738 9.801 0 0 0
165 2 4.773 13.695 6.659 0 0 0
398 2 1.802 15.501 7.695 1 0 0
397 1 2.360 15.398 8.515 1 0 0
399 2 1.825 14.810 9.038 1 0 0
164 2 4.161 14.652 7.898 0 0 0
163 1 4.941 14.349 7.380 0 0 0
79 1 15.326 14.871 9.345 0 0 0
143 2 9.460 11.949 9.981 0 0 0
69 2 7.852 14.481 8.517 0 0 0
351 2 6.984 14.982 4.758 0 0 0
67 1 7.106 14.261 9.110 0 0 0
116 2 9.608 14.823 7.091 0 0 0
117 2 9.678 15.886 8.139 0 0 0
115 1 9.018 15.473 7.565 0 0 0
273 2 10.021 12.623 5.554 0 0 0
142 1 8.634 12.253 10.519 0 0 0
68 2 6.297 14.191 8.535 0 0 0
144 2 8.118 12.962 10.046 0 0 0
195 2 10.553 14.662 5.338 0 0 0
395 2 11.701 12.273 9.596 0 0 0
287 2 11.370 15.564 9.871 0 0 0
45 2 16.044 14.919 6.580 -1 0 0
14 2 14.563 13.295 6.717 0 0 0
13 1 14.051 14.113 6.679 0 0 0
193 1 10.800 14.128 6.075 0 0 0
194 2 11.756 14.268 6.067 0 0 0
15 2 13.686 14.200 5.827 0 0 0
308 2 11.788 13.570 10.937 0 0 0
307 1 12.354 13.741 10.114 0 0 0
309 2 13.119 14.269 10.470 0 0 0
81 2 14.793 14.513 8.607 0 0 0
80 2 14.755 15.322 10.023 0 0 0
226 1 13.885 16.327 10.971 0 0 0
197 2 15.824 13.476 10.657 0 0 0
278 2 2.597 4.060 11.306 0 0 0
313 1 1.332 3.150 12.145 1 1 0
314 2 1.869 2.339 12.215 1 1 0
215 2 3.997 1.128 12.380 0 1 0
249 2 5.268 1.524 14.621 0 0 0
247 1 5.410 1.428 13.603 0 0 0
248 2 5.388 2.357 13.293 0 0 0
315 2 1.261 3.463 13.067 1 1 0
410 2 5.269 3.487 11.154 0 0 0
409 1 6.000 3.699 11.706 0 0 0
300 2 8.840 3.884 12.629 0 0 0
298 1 8.820 4.004 13.612 0 0 0
417 2 8.977 15.967 11.968 0 -1 0
299 2 8.737 3.114 13.982 0 0 0
199 1 8.121 1.338 14.269 0 0 0
201 2 7.285 1.177 13.847 0 0 0
107 2 11.002 2.344 15.613 0 0 -1
168 2 10.305 3.960 14.242 0 0 -1
93 2 6.367 4.411 15.547 0 0 0
92 2 6.577 4.325 13.901 0 0 0
200 2 8.513 0.487 14.380 0 0 0
316 1 15.156 2.623 10.367 0 1 0
166 1 11.181 3.513 14.495 0 0 -1
317 2 15.943 2.886 10.875 0 1 0
213 2 13.587 3.299 11.726 0 0 0
212 2 12.595 3.395 12.840 0 0 0
211 1 13.514 3.327 12.644 0 0 0
282 2 14.512 1.492 13.641 0 0 0
414 2 16.034 2.939 15.463 0 0 0
167 2 11.758 4.176 14.865 0 0 -1
235 1 2.996 8.270 15.444 0 0 0
412 1 0.541 3.566 14.903 1 0 0
413 2 1.091 4.023 15.528 1 0 0
236 2 3.638 7.859 14.861 0 0 0
77 2 1.693 8.617 12.733 0 0 0
76 1 2.278 9.005 12.017 0 0 0
65 2 1.619 7.989 14.779 0 0 0
210 2 5.779 5.631 11.774 0 0 0
208 1 5.755 6.570 11.647 0 0 0
209 2 5.671 6.962 12.520 0 0 0
254 2 8.818 6.825 10.540 0 0 0
255 2 7.486 6.490 11.285 0 0 0
91 1 6.073 4.782 14.620 0 0 0
375 2 5.423 6.258 14.472 0 0 0
373 1 5.215 7.237 14.262 0 0 0
374 2 6.055 7.702 14.655 0 0 0
253 1 8.455 6.346 11.295 0 0 0
157 1 9.055 6.179 15.380 0 0 0
158 2 8.712 5.373 14.956 0 0 0
98 2 8.115 7.457 15.339 0 0 0
159 2 9.822 6.525 14.800 0 0 0
97 1 7.550 8.256 15.316 0 0 0
230 2 14.333 5.891 15.774 0 0 -1
141 2 11.538 6.311 13.144 0 0 0
186 2 15.380 6.176 11.311 0 0 0
139 1 11.364 6.816 13.988 0 0 0
231 2 14.170 5.164 14.371 0 0 -1
140 2 12.171 6.703 14.566 0 0 0
229 1 13.679 5.450 15.185 0 0 -1
293 2 16.050 6.297 13.627 -1 0 0
292 1 15.467 5.735 13.116 -1 0 0
294 2 16.000 4.935 13.125 -1 0 0
126 2 3.640 11.696 15.870 0 0 0
12 2 4.520 11.603 11.452 0 0 0
10 1 4.965 10.989 11.985 0 0 0
11 2 5.544 11.426 12.617 0 0 0
366 2 1.094 9.976 11.021 1 0 0
237 2 3.160 9.221 15.386 0 0 0
78 2 3.171 9.135 12.350 0 0 0
342 2 1.963 12.779 13.669 0 0 0
340 1 2.821 12.637 13.249 0 0 0
341 2 2.715 12.466 12.296 0 0 0
125 2 3.770 11.310 14.387 0 0 0
124 1 4.000 11.018 15.247 0 0 0
64 1 0.836 7.937 14.110 0 0 0
66 2 16.156 8.288 14.670 -1 0 0
336 2 5.942 11.124 14.981 0 0 0
291 2 8.891 7.579 12.304 0 0 0
290 2 8.197 8.875 11.931 0 0 0
335 2 7.516 11.265 14.890 0 0 0
334 1 6.625 11.546 14.530 0 0 0
289 1 8.765 8.506 12.663 0 0 0
269 2 10.233 8.951 12.886 0 0 -1
99 2 8.014 8.852 14.683 0 0 0
149 2 9.997 11.067 15.025 0 0 -1
72 2 11.491 10.708 13.498 0 0 0
260 2 11.847 9.022 11.259 0 0 0
268 1 11.240 9.228 12.899 0 0 -1
198 2 0.397 12.173 11.351 1 0 0
270 2 11.573 8.553 13.505 0 0 -1
70 1 11.620 11.658 13.801 0 0 0
304 1 1.360 12.959 0.430 0 0 1
306 2 0.805 12.152 0.647 0 0 1
251 2 14.874 11.489 13.881 -1 0 0
71 2 12.565 11.818 13.769 0 0 0
250 1 14.378 12.267 13.615 -1 0 0
384 2 2.221 0.534 15.339 0 1 0
232 1 4.934 15.037 11.110 0 0 0
233 2 5.789 15.286 10.787 0 0 0
214 1 3.111 1.038 11.983 0 1 0
46 1 3.592 12.777 10.735 0 0 0
48 2 4.059 13.665 10.768 0 0 0
216 2 3.425 1.011 11.069 0 1 0
404 2 4.137 14.151 13.815 0 0 0
405 2 4.274 15.396 14.642 0 0 0
35 2 1.808 15.935 12.433 1 0 0
403 1 4.761 14.836 14.014 0 0 0
36 2 0.653 14.845 12.315 1 0 0
234 2 5.009 15.303 12.057 0 0 0
34 1 0.888 15.734 12.667 1 0 0
327 2 6.936 12.932 14.990 0 0 0
326 2 6.317 14.408 14.965 0 0 0
190 1 10.484 13.405 12.183 0 0 0
192 2 10.761 12.697 12.818 0 0 0
191 2 9.715 13.055 11.724 0 0 0
422 2 8.951 14.398 14.509 0 0 0
325 1 7.048 13.889 15.354 0 0 0
421 1 9.515 14.949 13.978 0 0 0
423 2 9.912 14.389 13.258 0 0 0
320 2 10.900 15.119 15.009 0 -1 -1
262 1 15.848 1.866 0.805 0 1 1
227 2 13.991 16.171 11.886 0 0 0
281 2 15.715 0.481 13.531 0 0 0
280 1 14.850 0.660 14.085 0 0 0
264 2 15.956 0.984 1.117 0 1 1
319 1 11.411 15.487 15.716 0 -1 -1
196 1 16.098 13.083 11.532 0 0 0
321 2 12.342 15.195 15.535 0 -1 -1
332 2 14.094 13.875 14.603 0 0 -1
331 1 13.880 14.555 15.250 0 0 -1
252 2 14.853 12.603 12.830 -1 0 0
333 2 14.310 15.353 14.936 0 0 -1

Velocities

368 8.157 8.573 31.596
129 -10.348 4.145 0.933
52 1.544 2.425 -1.258
54 24.316 28.074 -33.464
383 -4.229 27.361 -12.239
42 -11.184 -4.284 25.193
301 -4.539 0.818 0.474
303 -3.696 -6.554 -2.644
41 28.899 -21.584 8.434
360 -24.755 -15.682 -34.079
358 0.455 -2.122 -3.269
40 -0.603 2.080 8.020
362 31.635 -28.987 0.887
363 9.129 -1.738 7.859
361 5.061 3.678 0.484
106 -4.271 -2.945 4.316
155 -13.636 25.332 -8.819
154 0.962 3.779 -1.408
156 -10.690 -12.560 -3.632
74 3.549 25.245 9.869
381 4.279 -8.574 12.967
297 -1.859 -19.736 14.647
295 2.234 3.877 4.677
296 3.369 15.291 -8.473
379 3.563 -0.887 2.194
359 -11.747 -9.647 -15.930
95 15.416 3.969 2.562
265 -2.811 1.497 -2.670
266 26.604 9.736 -1.455
53 -13.370 -4.927 20.754
267 -2.310 6.098 -9.779
94 -2.218 3.192 8.514
96 10.279 -44.451 -9.446
385 -5.152 -3.235 6.170
387 -10.211 0.324 -15.463
386 21.921 -2.229 10.926
130 -4.053 3.629 -4.810
131 5.422 8.348 -21.740
108 -9.865 1.124 18.554
3 3.422 -20.045 0.167
50 19.553 -26.258 -13.962
49 1.009 6.211 -1.851
85 -2.076 3.292 -1.479
86 9.940 -7.804 -11.632
2 -16.412 14.634 6.178
1 4.303 6.998 1.015
302 28.559 -29.265 -15.927
339 -8.973 -12.603 -8.084
87 9.716 -2.455 -12.077
63 -4.556 -0.931 3.842
127 4.936 5.092 0.504
38 -13.686 -12.190 -0.987
37 7.415 -3.136 5.259
128 -0.068 -15.221 41.304
39 10.742 7.999 -3.364
380 -1.246 0.053 -19.379
244 1.428 3.433 3.423
245 17.637 4.268 9.307
246 -0.362 25.221 -10.013
105 -15.836 16.320 6.443
177 21.142 -2.037 -4.797
429 -31.669 -1.140 5.474
103 1.722 0.702 -1.095
428 20.902 6.141 10.794
427 -4.592 0.979 -3.756
256 -3.014 -1.344 -1.931
257 4.371 5.407 -0.309
170 -12.122 -6.841 -2.012
258 -6.870 6.117 19.348
169 -3.389 1.621 3.442
171 -22.642 16.531 22.118
312 -17.248 4.492 -24.781
310 2.481 -1.821 3.088
84 -17.780 0.447 -14.190
311 -21.730 -18.462 30.493
51 4.512 6.252 -29.276
119 4.827 30.808 31.667
432 7.592 1.138 8.589
118 -3.900 -0.898 3.312
430 3.827 -10.528 1.957
30 -5.468 1.483 13.346
28 0.132 -0.446 1.198
29 -2.792 33.030 -5.293
337 3.801 0.845 5.281
338 -10.340 2.122 -12.786
206 -10.083 -31.079 -21.349
104 -3.514 2.100 -6.505
203 -0.356 -0.387 4.930
202 -1.321 4.770 -3.553
371 -3.129 -17.936 8.328
204 9.442 -8.003 2.157
419 -30.322 31.304 -5.259
150 16.408 8.835 -1.577
420 3.527 -19.063 -22.807
391 -8.785 -0.866 -1.816
418 -2.365 -0.328 4.108
393 -30.462 -6.379 -4.333
392 -12.542 10.204 -23.026
271 -1.993 4.185 -0.782
272 12.324 18.789 32.129
205 -6.908 0.617 -1.343
148 -1.114 -4.081 -3.171
120 -0.540 -0.598 -9.681
225 -4.659 -12.840 -11.063
357 -25.292 -0.536 -6.139
370 -1.781 -2.097 2.190
372 -6.260 -1.280 11.754
356 9.724 24.534 -10.773
110 8.577 -5.469 32.786
121 -5.296 1.048 -0.224
122 18.564 0.826 -8.936
111 6.119 6.015 -7.870
109 -1.017 -1.423 2.001
123 0.620 8.433 -11.628
355 1.525 -6.524 0.451
305 20.535 0.266 19.423
367 2.006 2.834 9.181
431 -28.694 -7.145 -5.069
353 -2.688 1.503 -5.911
352 -1.706 -2.311 -3.781
151 6.606 -5.625 -0.793
152 14.343 -14.807 -1.463
354 -12.599 -18.572 -8.854
369 26.714 -9.544 -18.687
382 -2.879 0.450 -5.081
153 -1.528 -4.982 -7.524
187 -3.601 -5.783 -4.849
188 20.095 -10.853 7.977
189 -3.381 -13.323 3.532
136 -0.923 2.485 -3.915
137 -11.815 -18.177 41.586
138 0.585 10.575 27.282
350 -1.048 12.498 20.553
349 -1.838 2.764 -8.292
75 -15.144 -5.918 19.125
73 4.757 3.085 -2.644
223 -5.580 0.279 2.065
263 6.348 20.997 -5.339
60 6.749 45.572 -0.558
59 1.285 3.909 -17.001
224 14.355 1.560 -7.187
426 -13.911 -4.665 19.347
285 27.841 -19.240 4.536
425 14.959 12.963 -39.844
58 1.606 7.010 -5.997
424 -6.461 3.830 3.271
284 -1.149 5.230 13.467
283 1.109 -0.396 2.081
407 -10.484 -7.369 15.921
406 -6.815 -0.240 2.724
114 -22.549 -7.974 -8.879
43 -0.900 0.187 -2.784
4 0.696 0.348 -1.302
6 -12.503 -10.318 -9.826
277 1.934 0.048 3.671
279 2.862 -5.875 -24.077
378 -2.408 2.263 -18.928
5 16.298 8.761 -6.397
112 5.325 -0.519 -2.706
113 1.026 -9.849 -3.840
174 -6.583 31.065 6.741
172 2.849 0.928 1.721
173 -2.286 -15.193 -1.538
179 3.321 -2.277 -3.360
32 0.890 19.416 -13.279
31 4.450 1.113 -2.809
178 3.294 5.337 -1.641
416 0.828 4.108 -11.288
288 -2.112 22.851 4.223
33 20.608 9.198 11.471
102 7.500 1.384 -3.239
411 -14.406 2.257 25.582
415 -0.644 -1.715 3.514
377 -12.130 17.110 22.152
132 -0.681 -16.975 -7.782
160 -3.162 -9.776 4.742
161 28.758 -4.265 22.722
101 -6.172 -10.260 -2.033
180 1.227 4.098 13.881
376 -0.395 -3.962 -0.303
318 -22.241 -4.140 -0.361
228 -5.289 -10.128 -14.690
89 3.686 -8.097 7.464
286 -6.311 4.981 3.995
162 -40.476 2.749 17.557
100 0.003 -7.573 2.324
328 -1.907 2.041 -3.788
329 -26.695 42.995 0.742
330 32.892 -19.445 -9.991
408 28.541 -34.576 1.458
135 5.233 8.853 -20.863
276 5.993 16.398 -2.378
16 1.090 -2.750 -5.627
17 19.809 -9.126 -12.806
18 18.335 -6.771 6.169
274 -5.144 5.097 -6.243
275 -15.682 3.272 17.706
133 3.244 -0.060 -0.547
390 -11.919 -18.197 -9.890
389 -1.795 -6.187 -9.884
83 7.632 16.056 -29.154
175 -7.384 -4.241 -2.053
222 -14.601 -3.702 14.922
220 9.498 3.958 1.264
221 8.056 -18.234 -2.473
176 1.121 5.971 -24.912
134 -6.940 5.918 -27.396
27 17.190 -3.309 -6.062
21 -9.617 6.537 17.462
388 0.196 -4.147 0.209
238 1.834 4.539 -2.477
146 0.743 26.163 1.843
145 2.606 0.038 2.746
240 -9.791 -16.245 -1.597
82 5.257 -3.003 0.342
347 -8.447 -9.467 15.652
19 5.084 -4.894 0.873
90 10.175 -1.061 8.088
20 -3.652 6.970 -8.979
8 6.334 37.004 16.737
88 2.427 0.464 3.055
346 -5.316 -2.040 -2.688
184 -1.623 -8.486 3.239
185 25.203 -18.216 -6.497
243 -2.012 -3.622 -21.692
348 -17.685 -19.014 5.704
61 -1.111 -3.344 4.188
56 -33.407 -11.545 4.183
55 -9.171 1.141 -0.508
219 25.286 10.694 13.947
217 3.638 12.179 0.010
218 15.236 28.185 12.819
57 -7.689 -15.519 -0.943
183 10.028 15.944 6.312
181 -5.242 0.989 -5.896
182 -6.938 9.656 -4.437
364 -2.760 -0.179 -4.945
345 4.297 -1.201 -9.187
147 -24.403 -4.134 39.794
239 12.299 28.420 3.791
25 0.236 1.452 -3.763
207 5.389 9.649 -1.397
26 -0.375 12.377 4.721
343 -2.914 -3.443 -2.324
344 13.103 -10.633 -20.908
394 -1.478 3.610 -0.008
396 -31.130 7.818 21.034
22 11.264 1.204 -5.994
23 -20.100 4.592 10.136
24 16.081 -10.147 5.146
7 -2.846 -4.668 -0.258
62 -6.813 -19.491 -4.645
402 4.785 -2.847 24.308
9 4.427 -17.045 -11.684
322 -3.572 4.283 -7.019
324 -2.519 11.506 4.163
400 -0.942 -3.507 3.938
323 12.547 7.993 -2.932
261 2.347 -12.559 21.001
259 5.759 -5.658 4.924
241 -2.060 -2.121 0.975
242 -9.032 -24.617 11.707
401 -10.023 -13.419 6.245
365 0.282 24.094 -1.145
44 17.367 -4.005 -33.044
47 16.799 18.399 7.457
165 8.810 9.267 -31.127
398 26.428 13.228 -5.805
397 3.025 0.982 -5.127
399 2.938 -7.300 -1.451
164 -34.238 9.258 -1.516
163 -2.074 -3.527 -0.724
79 1.379 0.315 6.526
143 -8.376 -18.943 11.987
69 32.724 13.723 -26.490
351 34.398 19.689 -12.234
67 -7.454 -4.199 -3.459
116 -10.888 7.785 -22.995
117 -9.303 -9.552 -17.671
115 5.333 0.178 7.365
273 14.225 -9.807 -6.517
142 -2.630 -1.429 -0.401
68 15.576 -20.204 5.917
144 -21.707 -6.091 -2.090
195 42.822 -17.578 6.168
395 -14.987 11.755 -17.930
287 3.523 -3.633 24.362
45 20.057 2.511 2.257
14 -8.416 -25.243 -3.067
13 -13.045 3.364 1.404
193 -2.283 5.824 -1.740
194 1.748 17.473 -13.117
15 13.645 1.519 11.281
308 -2.779 21.895 17.147
307 -0.875 -7.505 0.417
309 4.031 6.604 24.891
81 -10.097 24.555 21.821
80 -11.631 11.544 -1.146
226 3.038 1.414 -7.837
197 -19.306 -3.226 13.798
278 -5.869 -6.901 13.329
313 -1.809 -3.351 -1.323
314 1.482 -7.328 -8.976
215 -12.080 -2.236 0.257
249 1.255 -8.851 -27.207
247 -0.571 0.679 -4.604
248 39.911 5.945 -1.846
315 -19.572 -5.159 -4.884
410 -13.854 -27.055 -2.454
409 -0.892 -4.775 2.943
300 2.683 9.307 2.186
298 0.185 0.265 -0.315
417 -5.482 4.911 12.308
299 5.106 -1.376 -12.801
199 2.253 -3.587 9.519
201 -1.251 -14.528 8.601
107 -7.323 -9.826 29.928
168 15.806 6.779 26.359
93 -17.880 -16.105 -1.426
92 -12.181 37.506 -2.011
200 1.202 -11.889 -25.264
316 -1.525 -5.897 -0.666
166 -3.348 5.617 5.007
317 15.785 4.311 4.737
213 -10.756 -8.131 -4.803
212 -18.264 -7.804 -22.731
211 4.915 2.197 -2.438
282 -4.990 15.831 -7.538
414 -1.512 14.928 -18.240
167 -3.710 17.600 17.983
235 5.986 4.632 -4.056
412 -6.907 -3.643 6.603
413 12.075 18.974 -23.304
236 2.148 -4.256 8.653
77 10.338 6.632 15.940
76 -1.938 1.870 -5.092
65 -5.231 20.259 2.782
210 21.361 -21.834 -3.611
208 -0.067 -13.200 1.495
209 2.113 7.220 -2.177
254 -17.987 2.147 -14.882
255 -15.479 20.605 -7.506
91 1.299 -2.304 2.617
375 1.845 -18.154 20.663
373 5.135 -4.139 -2.067
374 -22.627 2.107 32.958
253 0.134 5.004 -4.263
157 1.796 3.755 1.972
158 5.101 -14.997 -16.022
98 16.179 -3.485 -23.618
159 -27.356 9.395 -1.232
97 6.731 -0.406 -0.269
230 -1.445 10.356 8.547
141 -6.995 6.077 24.018
186 -13.523 26.288 -5.337
139 6.478 -3.406 -6.237
231 -29.381 -0.083 -13.584
140 -22.161 -2.626 -14.274
229 -2.402 5.380 4.749
293 30.180 -9.964 7.891
292 1.644 -1.092 -3.741
294 15.376 24.673 -11.414
126 -1.138 -12.250 -25.088
12 -21.384 14.837 9.828
10 1.960 -8.228 3.619
11 -0.432 17.597 12.031
366 2.491 24.261 16.679
237 15.830 19.238 -14.936
78 -16.487 33.647 -14.042
342 -9.937 9.526 0.059
340 6.474 -5.614 -0.003
341 0.109 -9.559 35.363
125 32.631 -17.173 29.028
124 5.706 1.368 3.671
64 6.697 3.412 -1.728
66 -1.428 0.117 4.861
336 3.243 -28.418 14.191
291 13.185 20.454 -11.889
290 -1.320 6.796 -3.933
335 3.952 16.166 -5.712
334 5.928 -2.576 -1.831
289 -4.381 -0.736 3.477
269 2.553 -22.004 3.641
99 -9.504 29.792 15.240
149 -4.643 -8.700 6.327
72 -3.536 -5.351 5.754
260 2.707 -1.950 -6.886
268 -1.069 -9.847 2.609
198 14.408 -25.115 -17.321
270 0.308 -19.648 -19.791
70 0.100 7.669 3.110
304 7.830 -4.002 0.362
306 5.313 19.850 9.952
251 10.883 -8.459 -15.586
71 12.217 -11.397 11.944
250 -5.342 -1.606 -1.804
384 -14.842 2.819 22.434
232 6.054 4.261 -1.162
233 2.036 4.101 -16.994
214 -5.597 -1.565 -1.891
46 -1.475 -0.076 2.193
48 3.323 5.057 0.357
216 5.195 1.723 -7.350
404 12.229 12.885 -0.656
405 3.982 -19.459 10.145
35 -10.149 26.814 -7.735
403 1.958 -1.404 7.056
36 6.585 -17.815 19.463
234 -0.250 -2.890 -10.693
34 -8.982 -5.587 -6.319
327 23.459 17.483 -12.330
326 -7.721 25.719 3.851
190 6.675 1.157 3.325
192 -0.271 17.400 17.803
191 -13.640 8.227 -11.843
422 8.611 15.829 8.366
325 8.398 6.060 -1.815
421 4.764 0.968 0.916
423 3.896 13.601 26.773
320 -18.829 -3.649 0.018
262 -10.264 -4.107 -1.018
227 -16.607 2.649 -2.955
281 -14.385 20.319 4.499
280 2.893 4.715 -0.670
264 6.106 1.847 -26.920
319 0.220 2.657 -7.669
196 -0.897 4.358 -4.558
321 -6.802 -9.659 12.847
332 -2.542 -0.139 9.923
331 4.610 -0.118 -2.153
252 -30.084 -8.184 -6.251
333 -9.347 17.115 14.919
